#!/bin/sh
# Generic pkg-config wrapper (POSIX sh; macOS / Linux / Windows-MSYS).
#
# Forces --define-prefix so Qt's relocatable .pc files — which hard-code the
# build-host prefix (e.g. the online-installer's /Users/qt/work/install) —
# resolve ${prefix} from each .pc file's actual on-disk location instead.
# Harmless for .pc files that already carry a correct prefix.
#
# Put this directory first on PATH so it shadows the real pkg-config for both
# the Makefile's `$(shell pkg-config …)` calls and seaqt's compile-time
# `gorge("pkg-config …")` calls.
#
# The real tool is discovered from PATH at runtime (no hard-coded path): we
# drop this wrapper's own directory from PATH and then let `command -v` find
# the next pkg-config — falling back to pkgconf. This avoids infinite
# self-recursion and works regardless of where pkg-config is installed.
#
# Windows note: native (cmd.exe) builds resolve the sibling pkg-config.cmd via
# PATHEXT; this extensionless script is what MSYS/Cygwin bash picks up.

# Absolute path of this script's directory.
self_dir=$(CDPATH= cd -- "$(dirname -- "$0")" 2>/dev/null && pwd -P) || self_dir=

# Rebuild PATH without our own directory so the real tool resolves normally.
clean_path=
oldifs=$IFS
IFS=:
for d in $PATH; do
  [ -n "$d" ] || d=.
  resolved=$(CDPATH= cd -- "$d" 2>/dev/null && pwd -P) || resolved=$d
  [ -n "$self_dir" ] && [ "$resolved" = "$self_dir" ] && continue
  clean_path=${clean_path:+$clean_path:}$d
done
IFS=$oldifs

real=$(PATH=$clean_path command -v pkg-config 2>/dev/null) \
  || real=$(PATH=$clean_path command -v pkgconf 2>/dev/null) \
  || { echo "pkg-config wrapper: no real pkg-config/pkgconf found on PATH" >&2; exit 127; }

exec "$real" --define-prefix "$@"
